1000 3 1
1000 1 0
1001
1000 1 1
1000.54
1000 1 2
999.584
1000 1 3
999.01
1000 1 4
999.346
1000 1 5
1000.28
1000 1 6
1000.96
1000 1 7
1000.75
1000 1 8
999.854
1000 1 9
999.089
1000 1.01 0
1001.01
1000 1.01 1
1000.55
1000 1.01 2
999.58
1000 1.01 3
999
1000 1.01 4
999.34
1000 1.01 5
1000.29
1000 1.01 6
1000.97
1000 1.01 7
1000.76
1000 1.01 8
999.853
1000 1.01 9
999.08
1000 1.02 0
1001.02
1000 1.02 1
1000.55
1000 1.02 2
999.576
1000 1.02 3
998.99
1000 1.02 4
999.333
1000 1.02 5
1000.29
1000 1.02 6
1000.98
1000 1.02 7
1000.77
1000 1.02 8
999.852
1000 1.02 9
999.071
1000 1.03 0
1001.03
1000 1.03 1
1000.56
1000 1.03 2
999.571
1000 1.03 3
998.98
1000 1.03 4
999.327
1000 1.03 5
1000.29
1000 1.03 6
1000.99
1000 1.03 7
1000.78
1000 1.03 8
999.85
1000 1.03 9
999.062
1000 1.04 0
1001.04
1000 1.04 1
1000.56
1000 1.04 2
999.567
1000 1.04 3
998.97
1000 1.04 4
999.32
1000 1.04 5
1000.29
1000 1.04 6
1001
1000 1.04 7
1000.78
1000 1.04 8
999.849
1000 1.04 9
999.052
1000 1.05 0
1001.05
1000 1.05 1
1000.57
1000 1.05 2
999.563
1000 1.05 3
998.961
1000 1.05 4
999.314
1000 1.05 5
1000.3
1000 1.05 6
1001.01
1000 1.05 7
1000.79
1000 1.05 8
999.847
1000 1.05 9
999.043
1000 1.06 0
1001.06
1000 1.06 1
1000.57
1000 1.06 2
999.559
1000 1.06 3
998.951
1000 1.06 4
999.307
1000 1.06 5
1000.3
1000 1.06 6
1001.02
1000 1.06 7
1000.8
1000 1.06 8
999.846
1000 1.06 9
999.034
1000 1.07 0
1001.07
1000 1.07 1
1000.58
1000 1.07 2
999.555
1000 1.07 3
998.941
1000 1.07 4
999.301
1000 1.07 5
1000.3
1000 1.07 6
1001.03
1000 1.07 7
1000.81
1000 1.07 8
999.844
1000 1.07 9
999.025
1000 1.08 0
1001.08
1000 1.08 1
1000.58
1000 1.08 2
999.551
1000 1.08 3
998.931
1000 1.08 4
999.294
1000 1.08 5
1000.31
1000 1.08 6
1001.04
1000 1.08 7
1000.81
1000 1.08 8
999.843
1000 1.08 9
999.016
1000 1.09 0
1001.09
1000 1.09 1
1000.59
1000 1.09 2
999.546
1000 1.09 3
998.921
1000 1.09 4
999.288
1000 1.09 5
1000.31
1000 1.09 6
1001.05
1000 1.09 7
1000.82
1000 1.09 8
999.841
1000 1.09 9
999.007
1000.1 1 0
1001.1
1000.1 1 1
1000.64
1000.1 1 2
999.684
1000.1 1 3
999.11
1000.1 1 4
999.446
1000.1 1 5
1000.38
1000.1 1 6
1001.06
1000.1 1 7
1000.85
1000.1 1 8
999.954
1000.1 1 9
999.189
1000.1 1.01 0
1001.11
1000.1 1.01 1
1000.65
1000.1 1.01 2
999.68
1000.1 1.01 3
999.1
1000.1 1.01 4
999.44
1000.1 1.01 5
1000.39
1000.1 1.01 6
1001.07
1000.1 1.01 7
1000.86
1000.1 1.01 8
999.953
1000.1 1.01 9
999.18
1000.1 1.02 0
1001.12
1000.1 1.02 1
1000.65
1000.1 1.02 2
999.675
1000.1 1.02 3
999.09
1000.1 1.02 4
999.433
1000.1 1.02 5
1000.39
1000.1 1.02 6
1001.08
1000.1 1.02 7
1000.87
1000.1 1.02 8
999.952
1000.1 1.02 9
999.171
1000.1 1.03 0
1001.13
1000.1 1.03 1
1000.66
1000.1 1.03 2
999.671
1000.1 1.03 3
999.08
1000.1 1.03 4
999.427
1000.1 1.03 5
1000.39
1000.1 1.03 6
1001.09
1000.1 1.03 7
1000.88
1000.1 1.03 8
999.95
1000.1 1.03 9
999.161
1000.1 1.04 0
1001.14
1000.1 1.04 1
1000.66
1000.1 1.04 2
999.667
1000.1 1.04 3
999.07
1000.1 1.04 4
999.42
1000.1 1.04 5
1000.39
1000.1 1.04 6
1001.1
1000.1 1.04 7
1000.88
1000.1 1.04 8
999.949
1000.1 1.04 9
999.152
1000.1 1.05 0
1001.15
1000.1 1.05 1
1000.67
1000.1 1.05 2
999.663
1000.1 1.05 3
999.06
1000.1 1.05 4
999.414
1000.1 1.05 5
1000.4
1000.1 1.05 6
1001.11
1000.1 1.05 7
1000.89
1000.1 1.05 8
999.947
1000.1 1.05 9
999.143
1000.1 1.06 0
1001.16
1000.1 1.06 1
1000.67
1000.1 1.06 2
999.659
1000.1 1.06 3
999.051
1000.1 1.06 4
999.407
1000.1 1.06 5
1000.4
1000.1 1.06 6
1001.12
1000.1 1.06 7
1000.9
1000.1 1.06 8
999.946
1000.1 1.06 9
999.134
1000.1 1.07 0
1001.17
1000.1 1.07 1
1000.68
1000.1 1.07 2
999.655
1000.1 1.07 3
999.041
1000.1 1.07 4
999.401
1000.1 1.07 5
1000.4
1000.1 1.07 6
1001.13
1000.1 1.07 7
1000.91
1000.1 1.07 8
999.944
1000.1 1.07 9
999.125
1000.1 1.08 0
1001.18
1000.1 1.08 1
1000.68
1000.1 1.08 2
999.651
1000.1 1.08 3
999.031
1000.1 1.08 4
999.394
1000.1 1.08 5
1000.41
1000.1 1.08 6
1001.14
1000.1 1.08 7
1000.91
1000.1 1.08 8
999.943
1000.1 1.08 9
999.116
1000.1 1.09 0
1001.19
1000.1 1.09 1
1000.69
1000.1 1.09 2
999.646
1000.1 1.09 3
999.021
1000.1 1.09 4
999.388
1000.1 1.09 5
1000.41
1000.1 1.09 6
1001.15
1000.1 1.09 7
1000.92
1000.1 1.09 8
999.941
1000.1 1.09 9
999.107
1000.2 1 0
1001.2
1000.2 1 1
1000.74
1000.2 1 2
999.784
1000.2 1 3
999.21
1000.2 1 4
999.546
1000.2 1 5
1000.48
1000.2 1 6
1001.16
1000.2 1 7
1000.95
1000.2 1 8
1000.05
1000.2 1 9
999.289
1000.2 1.01 0
1001.21
1000.2 1.01 1
1000.75
1000.2 1.01 2
999.78
1000.2 1.01 3
999.2
1000.2 1.01 4
999.54
1000.2 1.01 5
1000.49
1000.2 1.01 6
1001.17
1000.2 1.01 7
1000.96
1000.2 1.01 8
1000.05
1000.2 1.01 9
999.28
1000.2 1.02 0
1001.22
1000.2 1.02 1
1000.75
1000.2 1.02 2
999.776
1000.2 1.02 3
999.19
1000.2 1.02 4
999.533
1000.2 1.02 5
1000.49
1000.2 1.02 6
1001.18
1000.2 1.02 7
1000.97
1000.2 1.02 8
1000.05
1000.2 1.02 9
999.271
1000.2 1.03 0
1001.23
1000.2 1.03 1
1000.76
1000.2 1.03 2
999.771
1000.2 1.03 3
999.18
1000.2 1.03 4
999.527
1000.2 1.03 5
1000.49
1000.2 1.03 6
1001.19
1000.2 1.03 7
1000.98
1000.2 1.03 8
1000.05
1000.2 1.03 9
999.262
1000.2 1.04 0
1001.24
1000.2 1.04 1
1000.76
1000.2 1.04 2
999.767
1000.2 1.04 3
999.17
1000.2 1.04 4
999.52
1000.2 1.04 5
1000.49
1000.2 1.04 6
1001.2
1000.2 1.04 7
1000.98
1000.2 1.04 8
1000.05
1000.2 1.04 9
999.252
1000.2 1.05 0
1001.25
1000.2 1.05 1
1000.77
1000.2 1.05 2
999.763
1000.2 1.05 3
999.161
1000.2 1.05 4
999.514
1000.2 1.05 5
1000.5
1000.2 1.05 6
1001.21
1000.2 1.05 7
1000.99
1000.2 1.05 8
1000.05
1000.2 1.05 9
999.243
1000.2 1.06 0
1001.26
1000.2 1.06 1
1000.77
1000.2 1.06 2
999.759
1000.2 1.06 3
999.151
1000.2 1.06 4
999.507
1000.2 1.06 5
1000.5
1000.2 1.06 6
1001.22
1000.2 1.06 7
1001
1000.2 1.06 8
1000.05
1000.2 1.06 9
999.234
1000.2 1.07 0
1001.27
1000.2 1.07 1
1000.78
1000.2 1.07 2
999.755
1000.2 1.07 3
999.141
1000.2 1.07 4
999.501
1000.2 1.07 5
1000.5
1000.2 1.07 6
1001.23
1000.2 1.07 7
1001.01
1000.2 1.07 8
1000.04
1000.2 1.07 9
999.225
1000.2 1.08 0
1001.28
1000.2 1.08 1
1000.78
1000.2 1.08 2
999.751
1000.2 1.08 3
999.131
1000.2 1.08 4
999.494
1000.2 1.08 5
1000.51
1000.2 1.08 6
1001.24
1000.2 1.08 7
1001.01
1000.2 1.08 8
1000.04
1000.2 1.08 9
999.216
1000.2 1.09 0
1001.29
1000.2 1.09 1
1000.79
1000.2 1.09 2
999.746
1000.2 1.09 3
999.121
1000.2 1.09 4
999.488
1000.2 1.09 5
1000.51
1000.2 1.09 6
1001.25
1000.2 1.09 7
1001.02
1000.2 1.09 8
1000.04
1000.2 1.09 9
999.207
1000.3 1 0
1001.3
1000.3 1 1
1000.84
1000.3 1 2
999.884
1000.3 1 3
999.31
1000.3 1 4
999.646
1000.3 1 5
1000.58
1000.3 1 6
1001.26
1000.3 1 7
1001.05
1000.3 1 8
1000.15
1000.3 1 9
999.389
1000.3 1.01 0
1001.31
1000.3 1.01 1
1000.85
1000.3 1.01 2
999.88
1000.3 1.01 3
999.3
1000.3 1.01 4
999.64
1000.3 1.01 5
1000.59
1000.3 1.01 6
1001.27
1000.3 1.01 7
1001.06
1000.3 1.01 8
1000.15
1000.3 1.01 9
999.38
1000.3 1.02 0
1001.32
1000.3 1.02 1
1000.85
1000.3 1.02 2
999.875
1000.3 1.02 3
999.29
1000.3 1.02 4
999.633
1000.3 1.02 5
1000.59
1000.3 1.02 6
1001.28
1000.3 1.02 7
1001.07
1000.3 1.02 8
1000.15
1000.3 1.02 9
999.371
1000.3 1.03 0
1001.33
1000.3 1.03 1
1000.86
1000.3 1.03 2
999.871
1000.3 1.03 3
999.28
1000.3 1.03 4
999.627
1000.3 1.03 5
1000.59
1000.3 1.03 6
1001.29
1000.3 1.03 7
1001.08
1000.3 1.03 8
1000.15
1000.3 1.03 9
999.362
1000.3 1.04 0
1001.34
1000.3 1.04 1
1000.86
1000.3 1.04 2
999.867
1000.3 1.04 3
999.27
1000.3 1.04 4
999.62
1000.3 1.04 5
1000.59
1000.3 1.04 6
1001.3
1000.3 1.04 7
1001.08
1000.3 1.04 8
1000.15
1000.3 1.04 9
999.352
1000.3 1.05 0
1001.35
1000.3 1.05 1
1000.87
1000.3 1.05 2
999.863
1000.3 1.05 3
999.26
1000.3 1.05 4
999.614
1000.3 1.05 5
1000.6
1000.3 1.05 6
1001.31
1000.3 1.05 7
1001.09
1000.3 1.05 8
1000.15
1000.3 1.05 9
999.343
1000.3 1.06 0
1001.36
1000.3 1.06 1
1000.87
1000.3 1.06 2
999.859
1000.3 1.06 3
999.251
1000.3 1.06 4
999.607
1000.3 1.06 5
1000.6
1000.3 1.06 6
1001.32
1000.3 1.06 7
1001.1
1000.3 1.06 8
1000.15
1000.3 1.06 9
999.334
1000.3 1.07 0
1001.37
1000.3 1.07 1
1000.88
1000.3 1.07 2
999.855
1000.3 1.07 3
999.241
1000.3 1.07 4
999.601
1000.3 1.07 5
1000.6
1000.3 1.07 6
1001.33
1000.3 1.07 7
1001.11
1000.3 1.07 8
1000.14
1000.3 1.07 9
999.325
1000.3 1.08 0
1001.38
1000.3 1.08 1
1000.88
1000.3 1.08 2
999.851
1000.3 1.08 3
999.231
1000.3 1.08 4
999.594
1000.3 1.08 5
1000.61
1000.3 1.08 6
1001.34
1000.3 1.08 7
1001.11
1000.3 1.08 8
1000.14
1000.3 1.08 9
999.316
1000.3 1.09 0
1001.39
1000.3 1.09 1
1000.89
1000.3 1.09 2
999.846
1000.3 1.09 3
999.221
1000.3 1.09 4
999.588
1000.3 1.09 5
1000.61
1000.3 1.09 6
1001.35
1000.3 1.09 7
1001.12
1000.3 1.09 8
1000.14
1000.3 1.09 9
999.307
1000.4 1 0
1001.4
1000.4 1 1
1000.94
1000.4 1 2
999.984
1000.4 1 3
999.41
1000.4 1 4
999.746
1000.4 1 5
1000.68
1000.4 1 6
1001.36
1000.4 1 7
1001.15
1000.4 1 8
1000.25
1000.4 1 9
999.489
1000.4 1.01 0
1001.41
1000.4 1.01 1
1000.95
1000.4 1.01 2
999.98
1000.4 1.01 3
999.4
1000.4 1.01 4
999.74
1000.4 1.01 5
1000.69
1000.4 1.01 6
1001.37
1000.4 1.01 7
1001.16
1000.4 1.01 8
1000.25
1000.4 1.01 9
999.48
1000.4 1.02 0
1001.42
1000.4 1.02 1
1000.95
1000.4 1.02 2
999.976
1000.4 1.02 3
999.39
1000.4 1.02 4
999.733
1000.4 1.02 5
1000.69
1000.4 1.02 6
1001.38
1000.4 1.02 7
1001.17
1000.4 1.02 8
1000.25
1000.4 1.02 9
999.471
1000.4 1.03 0
1001.43
1000.4 1.03 1
1000.96
1000.4 1.03 2
999.971
1000.4 1.03 3
999.38
1000.4 1.03 4
999.727
1000.4 1.03 5
1000.69
1000.4 1.03 6
1001.39
1000.4 1.03 7
1001.18
1000.4 1.03 8
1000.25
1000.4 1.03 9
999.462
1000.4 1.04 0
1001.44
1000.4 1.04 1
1000.96
1000.4 1.04 2
999.967
1000.4 1.04 3
999.37
1000.4 1.04 4
999.72
1000.4 1.04 5
1000.7
1000.4 1.04 6
1001.4
1000.4 1.04 7
1001.18
1000.4 1.04 8
1000.25
1000.4 1.04 9
999.452
1000.4 1.05 0
1001.45
1000.4 1.05 1
1000.97
1000.4 1.05 2
999.963
1000.4 1.05 3
999.361
1000.4 1.05 4
999.714
1000.4 1.05 5
1000.7
1000.4 1.05 6
1001.41
1000.4 1.05 7
1001.19
1000.4 1.05 8
1000.25
1000.4 1.05 9
999.443
1000.4 1.06 0
1001.46
1000.4 1.06 1
1000.97
1000.4 1.06 2
999.959
1000.4 1.06 3
999.351
1000.4 1.06 4
999.707
1000.4 1.06 5
1000.7
1000.4 1.06 6
1001.42
1000.4 1.06 7
1001.2
1000.4 1.06 8
1000.25
1000.4 1.06 9
999.434
1000.4 1.07 0
1001.47
1000.4 1.07 1
1000.98
1000.4 1.07 2
999.955
1000.4 1.07 3
999.341
1000.4 1.07 4
999.701
1000.4 1.07 5
1000.7
1000.4 1.07 6
1001.43
1000.4 1.07 7
1001.21
1000.4 1.07 8
1000.24
1000.4 1.07 9
999.425
1000.4 1.08 0
1001.48
1000.4 1.08 1
1000.98
1000.4 1.08 2
999.951
1000.4 1.08 3
999.331
1000.4 1.08 4
999.694
1000.4 1.08 5
1000.71
1000.4 1.08 6
1001.44
1000.4 1.08 7
1001.21
1000.4 1.08 8
1000.24
1000.4 1.08 9
999.416
1000.4 1.09 0
1001.49
1000.4 1.09 1
1000.99
1000.4 1.09 2
999.946
1000.4 1.09 3
999.321
1000.4 1.09 4
999.688
1000.4 1.09 5
1000.71
1000.4 1.09 6
1001.45
1000.4 1.09 7
1001.22
1000.4 1.09 8
1000.24
1000.4 1.09 9
999.407
1000.5 1 0
1001.5
1000.5 1 1
1001.04
1000.5 1 2
1000.08
1000.5 1 3
999.51
1000.5 1 4
999.846
1000.5 1 5
1000.78
1000.5 1 6
1001.46
1000.5 1 7
1001.25
1000.5 1 8
1000.35
1000.5 1 9
999.589
1000.5 1.01 0
1001.51
1000.5 1.01 1
1001.05
1000.5 1.01 2
1000.08
1000.5 1.01 3
999.5
1000.5 1.01 4
999.84
1000.5 1.01 5
1000.79
1000.5 1.01 6
1001.47
1000.5 1.01 7
1001.26
1000.5 1.01 8
1000.35
1000.5 1.01 9
999.58
1000.5 1.02 0
1001.52
1000.5 1.02 1
1001.05
1000.5 1.02 2
1000.08
1000.5 1.02 3
999.49
1000.5 1.02 4
999.833
1000.5 1.02 5
1000.79
1000.5 1.02 6
1001.48
1000.5 1.02 7
1001.27
1000.5 1.02 8
1000.35
1000.5 1.02 9
999.571
1000.5 1.03 0
1001.53
1000.5 1.03 1
1001.06
1000.5 1.03 2
1000.07
1000.5 1.03 3
999.48
1000.5 1.03 4
999.827
1000.5 1.03 5
1000.79
1000.5 1.03 6
1001.49
1000.5 1.03 7
1001.28
1000.5 1.03 8
1000.35
1000.5 1.03 9
999.562
1000.5 1.04 0
1001.54
1000.5 1.04 1
1001.06
1000.5 1.04 2
1000.07
1000.5 1.04 3
999.47
1000.5 1.04 4
999.82
1000.5 1.04 5
1000.79
1000.5 1.04 6
1001.5
1000.5 1.04 7
1001.28
1000.5 1.04 8
1000.35
1000.5 1.04 9
999.552
1000.5 1.05 0
1001.55
1000.5 1.05 1
1001.07
1000.5 1.05 2
1000.06
1000.5 1.05 3
999.461
1000.5 1.05 4
999.814
1000.5 1.05 5
1000.8
1000.5 1.05 6
1001.51
1000.5 1.05 7
1001.29
1000.5 1.05 8
1000.35
1000.5 1.05 9
999.543
1000.5 1.06 0
1001.56
1000.5 1.06 1
1001.07
1000.5 1.06 2
1000.06
1000.5 1.06 3
999.451
1000.5 1.06 4
999.807
1000.5 1.06 5
1000.8
1000.5 1.06 6
1001.52
1000.5 1.06 7
1001.3
1000.5 1.06 8
1000.35
1000.5 1.06 9
999.534
1000.5 1.07 0
1001.57
1000.5 1.07 1
1001.08
1000.5 1.07 2
1000.05
1000.5 1.07 3
999.441
1000.5 1.07 4
999.801
1000.5 1.07 5
1000.8
1000.5 1.07 6
1001.53
1000.5 1.07 7
1001.31
1000.5 1.07 8
1000.34
1000.5 1.07 9
999.525
1000.5 1.08 0
1001.58
1000.5 1.08 1
1001.08
1000.5 1.08 2
1000.05
1000.5 1.08 3
999.431
1000.5 1.08 4
999.794
1000.5 1.08 5
1000.81
1000.5 1.08 6
1001.54
1000.5 1.08 7
1001.31
1000.5 1.08 8
1000.34
1000.5 1.08 9
999.516
1000.5 1.09 0
1001.59
1000.5 1.09 1
1001.09
1000.5 1.09 2
1000.05
1000.5 1.09 3
999.421
1000.5 1.09 4
999.788
1000.5 1.09 5
1000.81
1000.5 1.09 6
1001.55
1000.5 1.09 7
1001.32
1000.5 1.09 8
1000.34
1000.5 1.09 9
999.507
1000.6 1 0
1001.6
1000.6 1 1
1001.14
1000.6 1 2
1000.18
1000.6 1 3
999.61
1000.6 1 4
999.946
1000.6 1 5
1000.88
1000.6 1 6
1001.56
1000.6 1 7
1001.35
1000.6 1 8
1000.45
1000.6 1 9
999.689
1000.6 1.01 0
1001.61
1000.6 1.01 1
1001.15
1000.6 1.01 2
1000.18
1000.6 1.01 3
999.6
1000.6 1.01 4
999.94
1000.6 1.01 5
1000.89
1000.6 1.01 6
1001.57
1000.6 1.01 7
1001.36
1000.6 1.01 8
1000.45
1000.6 1.01 9
999.68
1000.6 1.02 0
1001.62
1000.6 1.02 1
1001.15
1000.6 1.02 2
1000.18
1000.6 1.02 3
999.59
1000.6 1.02 4
999.933
1000.6 1.02 5
1000.89
1000.6 1.02 6
1001.58
1000.6 1.02 7
1001.37
1000.6 1.02 8
1000.45
1000.6 1.02 9
999.671
1000.6 1.03 0
1001.63
1000.6 1.03 1
1001.16
1000.6 1.03 2
1000.17
1000.6 1.03 3
999.58
1000.6 1.03 4
999.927
1000.6 1.03 5
1000.89
1000.6 1.03 6
1001.59
1000.6 1.03 7
1001.38
1000.6 1.03 8
1000.45
1000.6 1.03 9
999.661
1000.6 1.04 0
1001.64
1000.6 1.04 1
1001.16
1000.6 1.04 2
1000.17
1000.6 1.04 3
999.57
1000.6 1.04 4
999.92
1000.6 1.04 5
1000.89
1000.6 1.04 6
1001.6
1000.6 1.04 7
1001.38
1000.6 1.04 8
1000.45
1000.6 1.04 9
999.652
1000.6 1.05 0
1001.65
1000.6 1.05 1
1001.17
1000.6 1.05 2
1000.16
1000.6 1.05 3
999.56
1000.6 1.05 4
999.914
1000.6 1.05 5
1000.9
1000.6 1.05 6
1001.61
1000.6 1.05 7
1001.39
1000.6 1.05 8
1000.45
1000.6 1.05 9
999.643
1000.6 1.06 0
1001.66
1000.6 1.06 1
1001.17
1000.6 1.06 2
1000.16
1000.6 1.06 3
999.551
1000.6 1.06 4
999.907
1000.6 1.06 5
1000.9
1000.6 1.06 6
1001.62
1000.6 1.06 7
1001.4
1000.6 1.06 8
1000.45
1000.6 1.06 9
999.634
1000.6 1.07 0
1001.67
1000.6 1.07 1
1001.18
1000.6 1.07 2
1000.15
1000.6 1.07 3
999.541
1000.6 1.07 4
999.901
1000.6 1.07 5
1000.9
1000.6 1.07 6
1001.63
1000.6 1.07 7
1001.41
1000.6 1.07 8
1000.44
1000.6 1.07 9
999.625
1000.6 1.08 0
1001.68
1000.6 1.08 1
1001.18
1000.6 1.08 2
1000.15
1000.6 1.08 3
999.531
1000.6 1.08 4
999.894
1000.6 1.08 5
1000.91
1000.6 1.08 6
1001.64
1000.6 1.08 7
1001.41
1000.6 1.08 8
1000.44
1000.6 1.08 9
999.616
1000.6 1.09 0
1001.69
1000.6 1.09 1
1001.19
1000.6 1.09 2
1000.15
1000.6 1.09 3
999.521
1000.6 1.09 4
999.888
1000.6 1.09 5
1000.91
1000.6 1.09 6
1001.65
1000.6 1.09 7
1001.42
1000.6 1.09 8
1000.44
1000.6 1.09 9
999.607
1000.7 1 0
1001.7
1000.7 1 1
1001.24
1000.7 1 2
1000.28
1000.7 1 3
999.71
1000.7 1 4
1000.05
1000.7 1 5
1000.98
1000.7 1 6
1001.66
1000.7 1 7
1001.45
1000.7 1 8
1000.55
1000.7 1 9
999.789
1000.7 1.01 0
1001.71
1000.7 1.01 1
1001.25
1000.7 1.01 2
1000.28
1000.7 1.01 3
999.7
1000.7 1.01 4
1000.04
1000.7 1.01 5
1000.99
1000.7 1.01 6
1001.67
1000.7 1.01 7
1001.46
1000.7 1.01 8
1000.55
1000.7 1.01 9
999.78
1000.7 1.02 0
1001.72
1000.7 1.02 1
1001.25
1000.7 1.02 2
1000.28
1000.7 1.02 3
999.69
1000.7 1.02 4
1000.03
1000.7 1.02 5
1000.99
1000.7 1.02 6
1001.68
1000.7 1.02 7
1001.47
1000.7 1.02 8
1000.55
1000.7 1.02 9
999.771
1000.7 1.03 0
1001.73
1000.7 1.03 1
1001.26
1000.7 1.03 2
1000.27
1000.7 1.03 3
999.68
1000.7 1.03 4
1000.03
1000.7 1.03 5
1000.99
1000.7 1.03 6
1001.69
1000.7 1.03 7
1001.48
1000.7 1.03 8
1000.55
1000.7 1.03 9
999.762
1000.7 1.04 0
1001.74
1000.7 1.04 1
1001.26
1000.7 1.04 2
1000.27
1000.7 1.04 3
999.67
1000.7 1.04 4
1000.02
1000.7 1.04 5
1000.99
1000.7 1.04 6
1001.7
1000.7 1.04 7
1001.48
1000.7 1.04 8
1000.55
1000.7 1.04 9
999.752
1000.7 1.05 0
1001.75
1000.7 1.05 1
1001.27
1000.7 1.05 2
1000.26
1000.7 1.05 3
999.661
1000.7 1.05 4
1000.01
1000.7 1.05 5
1001
1000.7 1.05 6
1001.71
1000.7 1.05 7
1001.49
1000.7 1.05 8
1000.55
1000.7 1.05 9
999.743
1000.7 1.06 0
1001.76
1000.7 1.06 1
1001.27
1000.7 1.06 2
1000.26
1000.7 1.06 3
999.651
1000.7 1.06 4
1000.01
1000.7 1.06 5
1001
1000.7 1.06 6
1001.72
1000.7 1.06 7
1001.5
1000.7 1.06 8
1000.55
1000.7 1.06 9
999.734
1000.7 1.07 0
1001.77
1000.7 1.07 1
1001.28
1000.7 1.07 2
1000.25
1000.7 1.07 3
999.641
1000.7 1.07 4
1000
1000.7 1.07 5
1001
1000.7 1.07 6
1001.73
1000.7 1.07 7
1001.51
1000.7 1.07 8
1000.54
1000.7 1.07 9
999.725
1000.7 1.08 0
1001.78
1000.7 1.08 1
1001.28
1000.7 1.08 2
1000.25
1000.7 1.08 3
999.631
1000.7 1.08 4
999.994
1000.7 1.08 5
1001.01
1000.7 1.08 6
1001.74
1000.7 1.08 7
1001.51
1000.7 1.08 8
1000.54
1000.7 1.08 9
999.716
1000.7 1.09 0
1001.79
1000.7 1.09 1
1001.29
1000.7 1.09 2
1000.25
1000.7 1.09 3
999.621
1000.7 1.09 4
999.988
1000.7 1.09 5
1001.01
1000.7 1.09 6
1001.75
1000.7 1.09 7
1001.52
1000.7 1.09 8
1000.54
1000.7 1.09 9
999.707
1000.8 1 0
1001.8
1000.8 1 1
1001.34
1000.8 1 2
1000.38
1000.8 1 3
999.81
1000.8 1 4
1000.15
1000.8 1 5
1001.08
1000.8 1 6
1001.76
1000.8 1 7
1001.55
1000.8 1 8
1000.65
1000.8 1 9
999.889
1000.8 1.01 0
1001.81
1000.8 1.01 1
1001.35
1000.8 1.01 2
1000.38
1000.8 1.01 3
999.8
1000.8 1.01 4
1000.14
1000.8 1.01 5
1001.09
1000.8 1.01 6
1001.77
1000.8 1.01 7
1001.56
1000.8 1.01 8
1000.65
1000.8 1.01 9
999.88
1000.8 1.02 0
1001.82
1000.8 1.02 1
1001.35
1000.8 1.02 2
1000.38
1000.8 1.02 3
999.79
1000.8 1.02 4
1000.13
1000.8 1.02 5
1001.09
1000.8 1.02 6
1001.78
1000.8 1.02 7
1001.57
1000.8 1.02 8
1000.65
1000.8 1.02 9
999.871
1000.8 1.03 0
1001.83
1000.8 1.03 1
1001.36
1000.8 1.03 2
1000.37
1000.8 1.03 3
999.78
1000.8 1.03 4
1000.13
1000.8 1.03 5
1001.09
1000.8 1.03 6
1001.79
1000.8 1.03 7
1001.58
1000.8 1.03 8
1000.65
1000.8 1.03 9
999.862
1000.8 1.04 0
1001.84
1000.8 1.04 1
1001.36
1000.8 1.04 2
1000.37
1000.8 1.04 3
999.77
1000.8 1.04 4
1000.12
1000.8 1.04 5
1001.09
1000.8 1.04 6
1001.8
1000.8 1.04 7
1001.58
1000.8 1.04 8
1000.65
1000.8 1.04 9
999.852
1000.8 1.05 0
1001.85
1000.8 1.05 1
1001.37
1000.8 1.05 2
1000.36
1000.8 1.05 3
999.76
1000.8 1.05 4
1000.11
1000.8 1.05 5
1001.1
1000.8 1.05 6
1001.81
1000.8 1.05 7
1001.59
1000.8 1.05 8
1000.65
1000.8 1.05 9
999.843
1000.8 1.06 0
1001.86
1000.8 1.06 1
1001.37
1000.8 1.06 2
1000.36
1000.8 1.06 3
999.751
1000.8 1.06 4
1000.11
1000.8 1.06 5
1001.1
1000.8 1.06 6
1001.82
1000.8 1.06 7
1001.6
1000.8 1.06 8
1000.65
1000.8 1.06 9
999.834
1000.8 1.07 0
1001.87
1000.8 1.07 1
1001.38
1000.8 1.07 2
1000.35
1000.8 1.07 3
999.741
1000.8 1.07 4
1000.1
1000.8 1.07 5
1001.1
1000.8 1.07 6
1001.83
1000.8 1.07 7
1001.61
1000.8 1.07 8
1000.64
1000.8 1.07 9
999.825
1000.8 1.08 0
1001.88
1000.8 1.08 1
1001.38
1000.8 1.08 2
1000.35
1000.8 1.08 3
999.731
1000.8 1.08 4
1000.09
1000.8 1.08 5
1001.11
1000.8 1.08 6
1001.84
1000.8 1.08 7
1001.61
1000.8 1.08 8
1000.64
1000.8 1.08 9
999.816
1000.8 1.09 0
1001.89
1000.8 1.09 1
1001.39
1000.8 1.09 2
1000.35
1000.8 1.09 3
999.721
1000.8 1.09 4
1000.09
1000.8 1.09 5
1001.11
1000.8 1.09 6
1001.85
1000.8 1.09 7
1001.62
1000.8 1.09 8
1000.64
1000.8 1.09 9
999.807
1000.9 1 0
1001.9
1000.9 1 1
1001.44
1000.9 1 2
1000.48
1000.9 1 3
999.91
1000.9 1 4
1000.25
1000.9 1 5
1001.18
1000.9 1 6
1001.86
1000.9 1 7
1001.65
1000.9 1 8
1000.75
1000.9 1 9
999.989
1000.9 1.01 0
1001.91
1000.9 1.01 1
1001.45
1000.9 1.01 2
1000.48
1000.9 1.01 3
999.9
1000.9 1.01 4
1000.24
1000.9 1.01 5
1001.19
1000.9 1.01 6
1001.87
1000.9 1.01 7
1001.66
1000.9 1.01 8
1000.75
1000.9 1.01 9
999.98
1000.9 1.02 0
1001.92
1000.9 1.02 1
1001.45
1000.9 1.02 2
1000.48
1000.9 1.02 3
999.89
1000.9 1.02 4
1000.23
1000.9 1.02 5
1001.19
1000.9 1.02 6
1001.88
1000.9 1.02 7
1001.67
1000.9 1.02 8
1000.75
1000.9 1.02 9
999.971
1000.9 1.03 0
1001.93
1000.9 1.03 1
1001.46
1000.9 1.03 2
1000.47
1000.9 1.03 3
999.88
1000.9 1.03 4
1000.23
1000.9 1.03 5
1001.19
1000.9 1.03 6
1001.89
1000.9 1.03 7
1001.68
1000.9 1.03 8
1000.75
1000.9 1.03 9
999.962
1000.9 1.04 0
1001.94
1000.9 1.04 1
1001.46
1000.9 1.04 2
1000.47
1000.9 1.04 3
999.87
1000.9 1.04 4
1000.22
1000.9 1.04 5
1001.2
1000.9 1.04 6
1001.9
1000.9 1.04 7
1001.68
1000.9 1.04 8
1000.75
1000.9 1.04 9
999.952
1000.9 1.05 0
1001.95
1000.9 1.05 1
1001.47
1000.9 1.05 2
1000.46
1000.9 1.05 3
999.861
1000.9 1.05 4
1000.21
1000.9 1.05 5
1001.2
1000.9 1.05 6
1001.91
1000.9 1.05 7
1001.69
1000.9 1.05 8
1000.75
1000.9 1.05 9
999.943
1000.9 1.06 0
1001.96
1000.9 1.06 1
1001.47
1000.9 1.06 2
1000.46
1000.9 1.06 3
999.851
1000.9 1.06 4
1000.21
1000.9 1.06 5
1001.2
1000.9 1.06 6
1001.92
1000.9 1.06 7
1001.7
1000.9 1.06 8
1000.75
1000.9 1.06 9
999.934
1000.9 1.07 0
1001.97
1000.9 1.07 1
1001.48
1000.9 1.07 2
1000.45
1000.9 1.07 3
999.841
1000.9 1.07 4
1000.2
1000.9 1.07 5
1001.2
1000.9 1.07 6
1001.93
1000.9 1.07 7
1001.71
1000.9 1.07 8
1000.74
1000.9 1.07 9
999.925
1000.9 1.08 0
1001.98
1000.9 1.08 1
1001.48
1000.9 1.08 2
1000.45
1000.9 1.08 3
999.831
1000.9 1.08 4
1000.19
1000.9 1.08 5
1001.21
1000.9 1.08 6
1001.94
1000.9 1.08 7
1001.71
1000.9 1.08 8
1000.74
1000.9 1.08 9
999.916
1000.9 1.09 0
1001.99
1000.9 1.09 1
1001.49
1000.9 1.09 2
1000.45
1000.9 1.09 3
999.821
1000.9 1.09 4
1000.19
1000.9 1.09 5
1001.21
1000.9 1.09 6
1001.95
1000.9 1.09 7
1001.72
1000.9 1.09 8
1000.74
1000.9 1.09 9
999.907
